# vtk DataFile Version 3.0
VTK File Generated by Insight Segmentation and Registration Toolkit (ITK)
ASCII
DATASET STRUCTURED_POINTS
DIMENSIONS 181 217 1 
SPACING 1.0000000000000000e+00 1.0000000000000000e+00 1.0000000000000000e+00 
ORIGIN 0.0000000000000000e+00 0.0000000000000000e+00 0.0000000000000000e+00 
POINT_DATA 39277
SCALARS scalars unsigned_short 1
LOOKUP_TABLE default
7 20 8 8 9 4 
12 9 12 9 6 16 
2 1 0 7 7 9 
12 7 16 9 5 8 
7 3 11 4 15 18 
4 14 5 4 7 7 
6 9 4 10 8 13 
6 11 15 10 7 4 
4 11 10 7 6 8 
9 19 14 6 3 4 
9 13 2 5 2 3 
3 6 4 6 16 5 
11 8 3 1 2 10 
19 7 9 13 7 11 
4 4 10 2 7 8 
5 3 4 23 13 6 
3 3 3 9 7 5 
5 4 5 2 14 8 
7 6 7 9 4 18 
3 6 1 6 6 5 
18 8 4 5 2 11 
8 4 6 4 9 2 
1 13 4 14 5 2 
5 5 13 16 13 15 
4 10 8 7 7 13 
10 4 9 8 8 8 
4 2 5 15 10 6 
5 1 15 6 2 9 
5 6 10 5 9 22 
7 5 11 16 1 8 
5 16 7 10 10 11 
6 7 9 13 13 10 
8 11 17 11 9 7 
1 9 4 13 10 6 
4 4 6 12 4 12 
4 4 2 13 11 13 
11 16 16 2 13 21 
3 2 10 4 20 4 
16 6 10 6 2 6 
12 7 16 11 4 3 
6 10 9 6 16 12 
9 10 10 12 5 5 
12 6 2 9 6 5 
10 2 12 12 7 3 
15 7 14 3 9 9 
6 6 10 13 8 6 
3 13 9 4 11 5 
9 15 7 7 7 6 
6 7 6 3 9 11 
5 7 6 7 6 7 
8 8 9 5 14 1 
2 8 6 7 3 10 
8 4 3 7 8 6 
6 5 12 8 10 12 
10 14 7 4 5 3 
11 3 6 5 24 5 
3 9 2 13 3 9 
8 4 4 4 5 13 
5 8 3 8 6 5 
4 7 4 8 9 4 
19 4 9 18 5 3 
6 9 2 8 10 6 
9 4 3 11 5 10 
5 11 3 11 5 2 
13 6 11 6 7 3 
7 7 6 7 6 6 
11 3 9 7 8 5 
3 3 9 12 15 11 
3 7 11 15 9 11 
20 13 8 0 4 7 
8 6 3 6 7 9 
14 12 6 11 8 6 
4 5 5 17 7 6 
13 10 5 9 6 12 
6 8 7 16 3 4 
4 6 5 12 3 9 
3 3 11 6 4 13 
24 3 14 10 6 23 
16 13 0 8 5 9 
14 5 8 18 4 3 
8 5 4 1 6 10 
6 10 10 8 6 10 
12 13 6 4 8 6 
11 6 10 8 9 8 
6 9 11 10 5 8 
4 2 11 8 4 8 
14 9 7 7 2 11 
15 7 7 4 11 4 
8 17 6 14 9 8 
8 8 6 7 7 1 
5 11 19 5 15 9 
3 15 8 7 3 3 
6 10 2 4 16 7 
10 7 4 13 11 2 
7 8 6 1 13 9 
2 13 10 6 15 8 
4 8 12 3 5 9 
14 11 2 7 10 3 
7 15 8 17 6 1 
4 14 5 8 10 13 
5 12 3 7 6 3 
9 7 12 7 5 6 
5 2 17 8 10 10 
4 6 9 8 4 11 
7 8 6 7 12 14 
4 6 10 12 4 11 
10 8 8 12 5 11 
7 6 3 12 1 10 
10 6 10 15 9 11 
7 13 6 3 8 4 
6 5 2 6 13 17 
11 14 7 6 7 11 
7 5 5 11 8 11 
5 5 5 2 13 11 
3 4 11 5 10 7 
6 11 5 6 10 1 
10 7 1 6 9 14 
13 13 3 1 5 6 
7 10 8 16 13 2 
9 6 6 4 1 12 
15 7 11 11 11 11 
8 6 7 3 9 5 
13 3 5 8 6 3 
3 9 6 11 2 14 
2 13 10 15 12 7 
8 6 17 10 0 6 
2 4 14 20 10 6 
14 4 4 11 4 4 
14 9 5 1 4 9 
1 4 5 6 5 10 
10 3 6 4 3 6 
5 5 10 0 10 12 
7 3 6 8 5 3 
8 6 7 4 12 18 
10 8 6 3 6 14 
8 14 2 11 16 17 
10 12 6 12 5 3 
2 2 14 12 9 11 
2 15 13 16 17 12 
6 11 12 7 10 5 
11 11 7 9 10 9 
5 7 2 3 13 12 
13 5 7 19 3 6 
6 5 16 8 9 8 
7 6 3 16 6 3 
5 8 3 15 14 15 
11 4 14 4 12 12 
6 13 15 12 9 13 
10 5 9 14 15 10 
12 12 5 12 7 3 
8 1 9 6 2 6 
5 9 5 12 6 6 
7 5 5 9 5 14 
10 4 11 6 8 8 
9 14 7 16 13 5 
11 3 7 7 8 12 
8 4 4 12 10 6 
4 6 6 5 10 4 
7 8 11 9 6 14 
14 4 18 2 8 5 
1 5 4 14 6 4 
11 8 16 10 15 5 
2 8 6 4 7 4 
19 5 10 4 6 3 
11 5 5 9 14 10 
7 5 13 8 8 8 
17 10 10 7 9 4 
16 7 5 3 12 7 
3 11 7 11 13 1 
11 9 12 7 13 12 
6 6 5 15 2 2 
8 6 13 5 11 10 
7 9 12 12 5 8 
6 6 8 8 6 9 
9 8 10 13 11 15 
1 5 11 8 9 4 
4 5 3 3 10 7 
9 8 9 9 17 8 
11 8 13 7 3 8 
10 5 9 3 13 10 
0 11 21 8 7 13 
10 22 15 5 9 11 
14 5 9 12 9 11 
9 11 5 12 16 11 
12 6 8 3 6 4 
16 5 11 4 13 9 
4 12 3 8 17 2 
7 18 5 6 6 6 
14 4 6 8 8 5 
14 7 6 17 7 6 
7 8 17 8 16 4 
2 5 12 16 11 9 
10 7 12 11 7 7 
5 9 9 5 4 9 
12 13 8 3 11 9 
12 9 11 15 15 9 
17 17 8 11 13 11 
25 9 9 5 5 4 
4 4 12 10 6 11 
2 16 11 4 6 8 
6 21 7 20 11 5 
4 11 20 10 2 9 
3 4 3 4 3 8 
2 1 4 10 1 7 
7 6 8 1 3 16 
4 13 6 10 14 9 
2 16 12 5 11 8 
12 8 3 3 4 11 
10 9 11 2 5 6 
5 6 10 3 4 13 
12 11 10 3 2 8 
11 6 6 10 11 2 
8 15 5 4 8 4 
3 7 5 8 7 18 
10 6 8 8 3 10 
15 9 4 8 10 5 
10 4 7 5 7 10 
3 9 5 12 7 15 
8 8 13 7 6 13 
9 7 4 7 8 6 
8 6 2 8 2 12 
4 4 10 6 10 14 
4 8 11 15 16 3 
9 12 11 13 13 3 
16 11 1 6 13 2 
7 8 7 3 3 12 
7 8 8 8 9 10 
20 8 13 5 3 8 
13 8 14 7 19 3 
3 6 6 8 2 6 
8 8 3 4 7 8 
5 6 3 10 14 7 
4 6 3 14 4 8 
2 6 12 10 5 10 
16 8 4 5 6 5 
9 13 9 4 4 7 
10 15 5 6 2 8 
10 6 16 6 7 18 
5 12 11 11 12 5 
16 5 11 5 3 9 
18 14 13 6 12 12 
9 4 13 8 3 11 
14 8 14 11 5 3 
12 9 11 5 10 11 
13 6 6 3 5 9 
10 10 9 21 6 9 
15 11 8 3 6 9 
6 3 13 10 2 6 
8 14 3 5 6 22 
3 7 11 16 18 3 
8 5 10 10 7 6 
12 6 2 11 6 5 
5 5 6 11 14 11 
8 10 9 1 9 4 
2 13 8 17 12 2 
14 22 18 14 3 10 
5 7 3 10 9 11 
5 11 20 5 7 9 
3 7 6 18 2 5 
11 4 10 9 12 1 
3 8 3 10 4 12 
15 3 6 6 2 4 
11 6 16 8 2 10 
12 8 3 4 13 7 
6 1 7 9 9 11 
13 16 2 10 13 2 
8 5 20 4 12 4 
8 9 4 12 2 20 
14 7 13 6 11 9 
3 7 14 15 12 17 
3 7 14 13 8 7 
4 9 4 2 3 7 
6 8 14 9 8 18 
3 8 12 12 9 6 
5 4 3 11 1 5 
5 7 4 10 3 11 
12 1 10 6 4 4 
12 14 3 7 5 1 
12 7 7 6 8 6 
7 13 19 4 12 11 
3 11 16 3 11 15 
16 6 5 8 7 3 
8 26 6 3 12 6 
10 11 9 16 22 47 
54 43 68 56 58 74 
60 52 76 68 67 65 
55 42 47 37 41 38 
46 44 39 42 49 46 
47 17 24 27 19 1 
12 12 1 3 11 8 
7 21 6 7 13 4 
5 14 5 2 9 7 
5 5 11 12 18 4 
18 3 7 2 10 9 
7 3 8 12 4 12 
5 12 6 4 10 11 
8 12 6 7 10 3 
2 8 6 10 10 2 
18 19 10 11 6 4 
1 9 8 1 5 13 
8 17 2 3 5 4 
2 6 7 2 8 7 
16 4 11 6 2 12 
1 13 5 10 7 10 
3 6 12 11 3 10 
10 4 12 2 9 19 
2 6 11 20 9 7 
12 7 7 6 3 3 
7 5 4 8 2 22 
3 5 14 19 15 14 
12 9 10 5 5 7 
10 4 14 7 5 5 
10 12 2 8 10 22 
24 51 70 100 107 132 
151 157 167 177 176 169 
182 172 172 177 185 176 
188 183 181 170 171 181 
177 173 179 178 193 181 
175 169 149 145 153 125 
107 83 70 51 37 27 
22 18 19 3 3 6 
14 5 15 11 4 5 
1 4 5 4 6 11 
16 3 13 12 7 4 
15 4 6 3 3 6 
9 3 10 6 5 8 
6 11 14 10 11 7 
3 5 20 7 3 7 
1 11 9 7 3 6 
17 1 3 4 9 7 
6 18 11 2 20 13 
7 2 2 10 8 12 
8 9 16 5 20 9 
4 8 1 10 5 3 
3 4 14 5 4 5 
8 3 7 8 10 2 
4 3 15 10 17 4 
13 2 4 5 8 10 
9 6 8 8 8 16 
11 3 4 14 6 9 
4 2 3 3 3 4 
13 5 5 4 15 6 
12 10 2 29 44 84 
134 152 172 195 205 191 
192 204 203 218 198 200 
203 192 206 200 202 199 
187 196 200 198 196 201 
199 184 200 194 202 208 
201 208 204 204 201 191 
203 194 198 185 168 161 
126 114 101 81 52 40 
24 21 16 14 6 9 
11 8 7 8 11 4 
7 2 8 13 11 9 
4 2 10 11 5 2 
13 4 6 5 13 7 
1 7 7 0 3 10 
7 4 7 9 11 9 
1 11 7 14 12 16 
3 12 8 9 10 10 
6 8 10 10 7 3 
5 1 7 3 7 6 
9 15 9 12 7 3 
2 12 6 3 7 7 
9 6 15 8 6 12 
18 9 14 8 1 2 
6 7 3 13 13 7 
11 6 12 13 15 1 
9 12 13 9 8 3 
7 8 13 7 11 5 
15 18 5 5 7 8 
5 9 5 5 3 2 
7 39 58 76 131 170 
204 212 196 199 195 180 
184 180 176 183 190 166 
178 180 185 178 184 179 
165 176 167 171 191 190 
190 189 190 196 178 176 
199 181 185 201 189 206 
205 194 211 212 201 208 
212 209 198 203 198 177 
164 125 115 89 60 33 
26 15 10 8 7 4 
6 9 12 10 9 8 
9 10 3 7 5 3 
10 8 15 5 1 8 
9 7 16 5 16 4 
8 6 2 8 4 12 
11 7 7 6 14 3 
14 3 7 8 8 17 
12 2 7 12 6 12 
7 9 3 12 7 4 
2 17 7 10 12 7 
2 11 12 12 4 2 
4 16 4 8 7 8 
5 5 11 8 2 8 
11 9 4 12 11 17 
9 0 9 7 4 8 
5 2 9 9 16 2 
19 11 8 9 11 8 
10 3 13 8 5 15 
13 11 6 8 9 30 
41 69 129 167 198 199 
202 194 201 177 187 187 
169 157 159 157 156 155 
151 156 153 154 155 163 
157 156 153 149 159 165 
174 154 160 170 160 157 
180 161 174 174 159 159 
171 180 172 197 180 196 
189 204 198 196 203 203 
202 207 182 182 186 158 
141 112 78 33 10 2 
9 12 10 14 15 1 
4 10 5 3 8 6 
1 14 12 4 7 4 
7 15 9 7 5 3 
7 16 1 16 5 2 
11 7 15 6 11 3 
10 5 5 7 14 2 
6 4 12 17 5 13 
13 3 7 13 11 8 
6 7 8 8 15 6 
4 6 11 9 4 3 
11 1 3 17 6 8 
7 6 13 10 4 5 
10 6 5 2 6 2 
3 2 11 6 7 7 
10 8 12 3 12 15 
4 9 5 2 3 7 
9 3 2 10 5 2 
3 4 17 12 41 68 
139 174 187 205 187 189 
181 185 161 162 155 164 
147 163 148 138 150 155 
143 151 157 155 161 153 
166 149 154 144 141 147 
162 158 145 153 141 154 
162 159 154 154 170 151 
157 164 157 165 162 158 
168 155 187 176 200 190 
188 189 200 208 191 196 
206 208 183 162 133 92 
52 25 4 13 5 11 
15 14 13 2 7 7 
8 5 4 15 8 11 
1 10 9 9 10 12 
6 10 7 5 4 12 
10 21 8 2 7 14 
5 6 10 8 3 16 
12 13 11 13 8 12 
2 8 8 6 10 2 
9 11 16 10 8 10 
7 11 2 5 8 9 
14 3 11 4 8 1 
6 8 3 5 4 4 
16 1 3 16 11 16 
4 10 8 3 3 9 
9 9 1 6 9 11 
10 7 4 11 11 2 
8 5 12 7 17 4 
5 12 3 44 99 157 
186 188 202 201 181 181 
173 164 160 150 155 148 
154 171 164 170 151 158 
159 160 148 163 162 158 
179 172 174 171 173 172 
171 170 173 172 169 162 
161 167 148 161 167 154 
171 151 159 155 157 158 
151 160 158 161 156 161 
157 167 168 169 172 188 
186 195 202 208 213 188 
179 159 117 56 25 13 
8 9 6 8 6 6 
14 6 6 5 15 6 
7 2 6 3 8 4 
17 5 7 5 9 11 
5 10 4 6 12 10 
3 4 11 9 5 7 
17 14 4 4 9 9 
3 4 7 6 14 7 
2 6 10 15 14 8 
15 10 7 6 5 17 
15 1 1 0 4 5 
4 7 7 1 5 15 
2 5 12 3 2 13 
6 6 7 2 5 4 
5 7 7 8 5 4 
13 15 4 9 16 7 
5 4 3 5 7 5 
5 7 22 65 136 186 
203 190 189 182 167 164 
149 147 146 142 146 151 
155 150 149 158 180 175 
191 164 171 170 164 137 
128 127 140 149 162 168 
175 183 173 188 193 197 
199 190 186 188 190 191 
179 164 172 168 161 170 
158 164 166 155 148 163 
155 151 158 148 171 159 
167 175 186 178 187 199 
214 204 211 188 163 116 
56 25 4 17 7 5 
4 12 5 11 8 11 
9 10 6 6 10 9 
11 10 3 10 9 10 
6 8 9 15 14 7 
15 3 13 4 13 3 
12 22 9 1 0 11 
16 18 3 4 9 6 
14 4 4 4 13 7 
5 6 3 8 4 4 
11 5 1 3 6 7 
7 10 6 9 8 10 
9 10 13 2 5 5 
6 11 9 5 6 8 
3 3 6 7 9 11 
7 3 7 7 11 25 
1 13 13 12 2 8 
9 21 57 124 180 198 
201 174 170 150 161 156 
155 164 152 140 153 157 
159 167 194 178 161 127 
112 75 51 55 48 50 
42 32 24 47 45 59 
56 77 79 78 94 110 
128 121 139 150 184 173 
184 198 187 202 211 200 
196 192 196 192 201 190 
168 155 169 164 158 156 
158 158 155 173 172 169 
169 171 179 202 206 206 
201 167 115 44 11 9 
8 18 8 20 2 14 
9 5 18 6 13 6 
18 4 8 17 4 7 
6 14 11 9 9 2 
9 9 13 4 5 17 
8 2 6 1 4 8 
14 6 11 8 2 11 
3 5 10 6 12 10 
4 7 2 4 3 14 
7 11 9 9 2 11 
6 2 17 10 10 8 
1 5 5 8 7 11 
6 11 5 6 3 2 
3 13 8 13 7 7 
9 6 11 7 5 3 
11 12 6 4 6 14 
10 33 110 159 191 191 
178 163 165 152 142 149 
149 158 149 162 170 174 
176 182 140 101 56 34 
19 13 8 10 2 10 
19 13 14 1 16 25 
27 18 17 14 3 6 
17 7 21 36 36 57 
68 66 90 96 110 126 
133 149 173 192 195 177 
195 198 185 197 184 174 
181 167 167 153 161 153 
156 166 154 166 186 194 
199 206 202 206 182 102 
38 24 6 11 11 8 
9 13 2 9 2 8 
5 4 8 1 7 2 
10 13 6 12 4 5 
17 3 10 2 3 7 
6 10 1 10 7 10 
4 14 12 10 13 22 
5 7 8 3 13 10 
2 3 2 9 3 4 
10 4 9 8 13 11 
4 4 10 11 9 6 
14 8 1 8 4 1 
6 14 7 8 1 4 
4 7 2 4 8 9 
10 8 10 6 11 7 
10 14 5 9 5 4 
13 63 143 194 190 171 
176 167 147 147 150 146 
158 154 138 152 164 181 
166 116 65 34 23 6 
13 13 19 5 13 23 
27 27 26 21 18 40 
42 30 15 34 29 20 
20 22 20 24 7 19 
7 9 21 14 10 34 
25 41 40 40 70 76 
80 106 124 139 176 186 
191 190 178 183 179 161 
163 150 161 144 170 161 
176 188 192 196 209 218 
201 145 66 15 10 9 
6 2 6 9 4 21 
4 2 4 2 5 2 
5 6 3 13 14 4 
7 11 1 10 5 16 
7 9 8 4 7 11 
13 6 3 12 11 6 
7 10 12 6 4 11 
9 3 10 9 16 12 
8 18 8 6 10 7 
12 8 8 6 14 5 
9 5 10 9 11 6 
5 8 4 7 15 4 
7 2 18 5 7 5 
7 11 8 15 6 5 
7 11 6 3 11 9 
28 106 170 196 174 175 
176 158 142 147 149 153 
152 155 159 177 182 147 
98 61 36 11 9 26 
30 30 45 54 51 50 
80 86 92 83 86 102 
146 147 147 126 151 104 
100 118 124 113 88 81 
77 58 33 36 22 16 
13 9 13 10 15 11 
13 29 26 23 39 63 
82 120 152 182 209 204 
197 170 167 160 154 159 
158 152 152 155 178 191 
213 198 201 182 102 55 
3 4 6 8 8 11 
6 18 5 5 5 14 
7 1 6 4 4 7 
5 15 7 7 4 10 
7 6 5 11 8 9 
6 10 10 6 6 9 
16 14 14 7 13 5 
9 10 4 9 7 14 
9 0 9 14 7 6 
9 17 14 13 3 8 
6 8 6 15 7 16 
11 13 16 10 17 11 
15 7 1 9 10 6 
9 7 9 15 9 13 
9 10 4 10 11 30 
86 151 186 185 182 159 
154 163 146 151 153 155 
162 151 180 193 153 118 
61 34 23 13 26 43 
68 108 136 151 147 118 
93 106 90 66 78 75 
110 177 186 165 168 170 
189 182 206 197 205 187 
191 194 174 153 110 111 
94 106 69 60 33 37 
40 32 26 14 18 5 
16 13 27 45 93 141 
180 207 218 196 166 146 
148 147 161 162 161 161 
165 153 167 188 194 183 
180 78 29 10 14 9 
8 13 6 7 2 11 
4 11 7 10 5 9 
7 7 9 7 3 10 
1 9 12 15 9 3 
6 9 4 2 11 10 
11 12 16 15 1 7 
4 3 7 11 11 7 
3 5 5 8 9 4 
4 11 11 15 10 9 
14 11 6 5 8 10 
5 5 10 5 3 9 
5 5 10 11 8 8 
13 6 5 7 4 11 
4 11 3 3 16 54 
137 177 183 169 170 153 
152 155 159 167 162 149 
153 169 184 167 120 68 
39 27 29 31 49 103 
167 184 180 181 184 148 
96 67 68 73 65 56 
56 61 105 117 96 68 
101 126 186 209 209 206 
199 215 209 198 206 165 
171 180 188 154 167 156 
112 108 86 78 61 30 
24 38 29 14 20 46 
55 80 133 164 176 203 
193 176 161 163 170 167 
151 164 158 157 166 176 
193 186 196 126 57 20 
3 12 16 8 8 2 
13 9 8 2 9 5 
5 2 6 13 14 9 
7 10 12 10 9 14 
3 15 6 6 7 1 
10 3 7 4 10 7 
2 5 10 13 8 2 
4 3 13 6 3 2 
1 9 8 4 19 8 
10 1 6 4 12 3 
9 12 12 3 9 14 
16 7 3 13 8 17 
9 10 11 11 8 9 
9 17 3 14 20 92 
164 184 164 156 151 150 
150 157 157 169 147 156 
169 186 167 123 65 45 
22 28 60 79 115 143 
145 189 196 171 127 140 
116 77 74 87 110 122 
120 113 127 149 148 127 
90 81 75 85 110 170 
186 198 164 149 145 146 
98 84 121 173 154 187 
182 142 117 108 103 97 
53 48 71 71 43 49 
38 18 18 27 51 101 
148 196 192 188 190 168 
162 163 174 174 152 155 
166 187 180 180 195 172 
94 37 8 1 9 7 
3 5 6 4 11 7 
11 11 4 10 6 10 
9 11 6 5 4 2 
15 6 10 7 6 5 
5 10 2 7 8 3 
2 16 14 2 4 18 
3 7 9 8 10 9 
5 19 8 9 11 3 
7 11 6 6 4 18 
11 12 6 7 3 13 
9 6 9 4 6 17 
7 5 4 7 7 9 
8 6 8 11 43 115 
191 178 162 168 142 152 
157 169 166 169 152 162 
193 179 141 70 32 24 
7 12 34 94 115 117 
142 125 120 109 116 107 
139 175 170 183 187 185 
196 196 205 195 190 193 
175 185 190 175 106 74 
53 80 86 68 77 60 
81 68 64 63 81 79 
102 137 144 158 154 142 
112 78 51 70 73 63 
77 95 32 17 22 16 
27 58 89 147 194 204 
199 192 177 159 154 171 
169 160 160 163 164 177 
190 189 110 39 8 9 
20 9 2 6 16 12 
2 8 12 3 4 14 
9 8 8 6 14 16 
12 7 6 16 10 5 
5 7 19 6 10 11 
9 6 8 13 2 1 
4 12 12 5 5 13 
13 5 14 10 10 5 
6 4 6 10 13 6 
2 8 8 7 7 5 
4 6 7 9 8 21 
6 13 16 5 3 4 
8 11 4 22 60 150 
185 180 161 147 161 148 
131 164 175 153 154 180 
185 137 104 57 34 20 
18 13 18 10 67 59 
46 61 39 51 97 162 
188 195 216 219 202 190 
180 183 199 205 197 193 
173 198 182 170 188 182 
150 83 45 53 59 95 
124 149 169 175 163 167 
169 181 193 188 185 201 
185 181 179 160 113 80 
45 42 75 42 31 28 
20 26 23 29 61 123 
164 197 215 205 172 152 
164 166 148 158 150 168 
169 162 185 182 147 59 
17 7 8 9 7 10 
7 12 3 13 2 17 
5 10 8 9 1 12 
1 10 8 9 9 7 
6 7 3 2 15 8 
6 8 14 13 5 14 
2 5 2 4 20 10 
17 12 14 10 14 12 
12 8 12 5 5 9 
4 9 11 12 5 6 
8 9 11 5 2 6 
7 8 10 2 8 3 
0 23 13 29 78 166 
179 166 159 158 153 165 
146 164 160 148 159 177 
185 66 42 56 51 25 
19 13 26 16 14 23 
16 35 15 55 156 189 
203 189 195 186 197 180 
172 181 171 180 184 188 
184 181 168 176 172 182 
196 200 172 168 189 195 
188 190 180 187 197 203 
208 222 216 209 183 186 
196 182 182 199 197 197 
179 104 72 61 24 21 
22 21 54 66 41 20 
54 76 124 168 202 202 
190 168 152 162 170 169 
151 148 167 170 181 202 
156 48 25 14 19 5 
3 11 5 6 8 11 
9 11 11 8 11 9 
6 8 14 8 5 7 
11 8 3 8 3 12 
9 3 10 3 1 10 
15 10 4 11 12 16 
16 6 7 10 9 13 
8 10 2 11 8 2 
7 3 8 7 10 15 
2 13 6 3 9 6 
4 19 10 8 4 2 
13 3 14 30 99 177 
177 164 152 147 150 161 
160 165 163 154 179 189 
166 71 18 19 54 52 
28 19 7 20 24 13 
3 33 50 81 160 199 
195 183 184 176 197 188 
197 171 165 171 173 183 
180 167 162 161 174 179 
185 177 190 209 206 204 
190 184 174 174 205 197 
191 195 209 194 196 191 
189 189 196 185 183 199 
190 204 198 180 158 70 
23 20 22 52 78 73 
21 34 32 30 56 120 
181 186 191 174 157 160 
161 150 163 151 153 168 
184 188 176 81 26 9 
2 9 11 15 6 9 
14 5 3 10 11 8 
11 5 3 11 11 8 
10 11 3 5 1 7 
7 10 8 14 9 7 
3 12 9 4 4 9 
10 14 14 28 4 5 
8 11 4 1 12 4 
4 5 6 4 9 14 
8 3 3 24 10 7 
6 15 4 18 14 9 
9 8 16 42 124 156 
170 153 160 147 151 163 
185 169 157 152 183 189 
152 71 24 18 52 65 
29 23 15 11 18 7 
37 44 82 171 202 192 
200 192 171 175 164 171 
189 190 178 156 159 158 
157 166 153 168 166 167 
171 181 180 177 176 201 
206 169 160 177 179 191 
202 205 198 205 182 166 
165 185 175 178 182 184 
178 183 187 195 210 213 
170 87 48 14 25 34 
42 27 11 25 33 26 
56 108 178 194 203 170 
157 155 170 167 165 161 
165 178 185 194 188 101 
24 2 10 14 15 6 
8 12 6 9 5 4 
11 9 14 8 13 3 
12 4 8 11 8 6 
9 10 6 4 6 10 
9 16 9 12 11 7 
8 3 16 8 10 9 
10 7 11 8 6 8 
13 8 7 12 12 6 
16 8 9 4 9 3 
10 14 3 9 10 6 
8 15 7 60 149 194 
167 160 159 142 150 173 
172 179 164 172 177 176 
135 85 39 45 46 64 
66 46 27 17 12 55 
84 166 179 188 205 221 
210 180 175 167 168 152 
171 171 190 189 178 161 
155 167 168 159 167 150 
162 166 185 178 193 187 
180 198 173 167 174 190 
187 202 210 194 170 175 
160 158 172 186 183 194 
195 172 189 183 183 177 
192 198 188 175 75 46 
36 20 18 4 35 43 
46 34 39 96 153 205 
198 179 165 167 164 173 
167 163 164 167 181 183 
187 99 30 15 3 11 
10 10 1 10 7 12 
5 7 11 11 2 13 
5 10 4 10 10 7 
13 5 8 15 10 13 
5 9 7 4 7 11 
11 12 6 5 11 9 
16 4 9 6 12 6 
13 4 7 6 8 2 
15 2 1 4 9 19 
6 1 15 7 5 7 
9 7 14 60 147 191 
161 160 162 158 148 165 
189 175 161 167 195 174 
97 60 59 45 47 43 
57 66 39 20 46 88 
171 203 197 199 190 204 
207 215 196 173 177 162 
158 174 164 187 195 181 
162 166 157 153 167 158 
165 168 153 165 166 189 
192 190 190 191 167 170 
198 208 212 212 216 187 
168 167 154 170 167 174 
185 190 184 182 180 165 
183 183 193 203 210 179 
88 55 22 14 17 38 
35 28 24 21 36 100 
148 177 207 209 176 156 
168 170 162 153 159 178 
175 183 196 126 31 2 
25 7 6 10 6 5 
5 10 21 6 1 11 
11 4 11 12 4 11 
4 4 5 3 8 7 
17 6 14 6 11 5 
8 8 3 3 11 6 
1 6 4 12 6 6 
11 9 12 4 5 6 
4 9 11 12 5 13 
3 9 6 2 2 2 
23 14 17 62 166 173 
176 155 158 148 154 181 
172 170 155 172 185 175 
83 33 70 67 57 44 
34 28 28 54 89 164 
193 186 182 196 189 180 
188 190 206 203 200 178 
169 175 169 158 179 182 
182 184 161 140 168 170 
191 180 175 167 176 148 
162 180 192 208 219 208 
183 200 208 211 208 215 
191 186 179 161 168 160 
162 178 195 191 193 177 
180 174 178 173 180 184 
208 193 163 85 21 17 
42 46 56 56 24 25 
55 60 112 156 200 212 
198 164 161 164 165 167 
162 153 175 188 192 111 
35 11 9 10 12 2 
10 11 3 10 8 5 
6 10 3 8 5 6 
4 8 2 5 11 11 
6 12 5 16 6 10 
3 9 3 3 3 10 
4 16 14 12 7 7 
3 8 13 7 5 3 
6 11 6 13 11 10 
11 13 17 12 19 7 
12 8 27 73 172 178 
156 155 148 141 161 173 
176 153 153 175 188 181 
101 37 30 81 87 61 
27 17 32 77 165 194 
191 182 183 173 199 192 
186 184 193 208 220 203 
184 180 164 162 162 172 
169 172 173 162 160 157 
194 188 175 193 185 175 
186 178 184 198 201 224 
218 209 211 203 192 199 
198 210 182 178 184 174 
150 153 159 171 176 177 
178 181 160 159 168 186 
191 203 218 211 197 84 
55 12 34 77 89 41 
35 19 31 48 81 146 
195 212 196 171 164 163 
165 161 162 169 176 187 
182 111 22 20 8 7 
12 4 8 1 5 8 
6 9 4 8 8 2 
5 3 3 5 6 11 
12 20 13 2 12 4 
4 5 3 7 9 10 
6 12 9 11 18 12 
12 6 5 5 1 3 
5 9 15 13 9 2 
13 4 4 6 9 11 
3 14 31 73 158 177 
160 157 151 157 164 169 
185 169 153 176 185 147 
92 34 50 60 53 68 
41 8 52 142 179 181 
192 188 179 185 185 183 
171 182 167 183 187 199 
200 192 194 178 164 162 
160 152 165 172 161 155 
165 182 185 186 197 198 
192 191 194 201 208 205 
215 222 222 201 189 174 
182 192 197 194 188 186 
187 171 172 168 151 151 
170 157 162 157 174 171 
200 194 199 199 195 211 
204 186 88 41 46 63 
64 53 56 42 37 11 
45 134 198 206 195 170 
158 167 168 150 145 151 
155 187 185 101 28 9 
5 11 9 12 6 10 
14 9 11 8 8 12 
7 16 6 5 2 11 
8 11 15 15 2 7 
8 9 5 3 2 12 
3 14 8 8 7 14 
2 7 14 3 6 6 
11 4 7 1 4 10 
9 7 9 5 13 18 
8 5 17 83 172 191 
162 150 146 147 170 180 
188 173 150 174 186 127 
63 26 60 75 60 36 
18 23 56 166 200 198 
189 176 174 172 157 181 
172 163 174 173 182 187 
191 200 202 185 180 183 
163 160 163 158 157 148 
154 169 168 168 179 196 
184 188 187 208 210 211 
209 215 218 211 184 170 
165 172 173 184 180 187 
199 180 167 161 168 163 
161 159 165 154 157 168 
181 194 194 193 197 201 
209 212 194 204 195 59 
24 21 41 78 81 49 
21 15 34 97 163 185 
182 152 160 186 170 150 
166 164 161 177 174 77 
16 7 8 14 7 8 
0 14 2 18 12 7 
14 4 7 9 6 13 
6 4 11 10 13 12 
8 22 7 3 8 12 
4 3 9 4 6 6 
8 6 5 6 5 3 
8 9 11 11 9 4 
11 6 4 6 11 3 
3 9 15 75 158 185 
168 165 144 146 155 176 
183 153 169 165 183 116 
49 30 60 110 131 49 
27 21 64 175 202 173 
184 180 170 148 161 173 
179 182 169 161 169 181 
189 187 195 209 196 188 
178 170 155 147 156 155 
161 159 160 171 165 172 
176 190 181 191 207 203 
197 207 219 205 194 183 
167 163 160 164 171 172 
172 182 169 170 160 156 
162 158 166 167 172 160 
186 181 201 197 182 184 
195 195 202 179 197 200 
182 84 37 9 33 50 
62 40 21 13 28 93 
150 188 175 165 174 166 
181 158 157 166 169 183 
179 81 7 18 14 6 
9 3 4 9 13 16 
6 4 11 10 7 4 
17 4 10 7 5 9 
13 3 8 9 6 7 
6 8 17 3 6 6 
16 13 6 1 3 8 
14 3 3 4 3 16 
5 7 10 9 6 6 
10 8 24 63 163 190 
160 170 151 141 147 167 
182 159 142 166 156 98 
36 31 64 130 133 93 
24 21 67 185 184 180 
182 184 174 155 143 166 
181 178 178 165 170 163 
181 188 180 194 202 204 
191 188 168 155 161 163 
150 164 150 174 154 164 
172 177 185 192 195 189 
200 201 215 221 202 191 
176 165 166 148 167 161 
170 155 152 160 154 168 
155 158 156 145 171 164 
198 196 203 181 187 198 
185 186 184 184 183 184 
183 189 207 156 65 40 
30 34 45 60 26 2 
34 81 151 193 178 160 
166 178 172 173 164 172 
163 195 155 55 11 2 
7 7 13 8 3 2 
7 18 11 13 5 14 
4 4 6 1 17 9 
3 13 3 10 11 8 
6 3 2 1 4 7 
3 18 7 13 1 7 
13 3 7 14 12 3 
3 4 3 1 8 4 
17 6 18 57 124 184 
167 167 172 146 149 170 
182 176 154 164 164 90 
32 25 59 112 135 76 
26 31 91 179 193 184 
181 187 171 160 158 150 
164 176 185 182 163 147 
162 163 179 178 183 200 
209 193 195 171 151 156 
165 157 158 153 169 160 
167 195 190 207 202 203 
202 192 192 212 211 201 
187 178 162 153 159 160 
162 165 158 168 163 162 
159 152 154 160 175 169 
192 183 195 186 171 168 
182 183 172 188 166 159 
183 179 193 211 211 195 
173 57 28 28 53 95 
55 18 32 91 162 204 
180 163 177 192 173 159 
163 173 189 193 111 32 
8 9 9 7 9 10 
7 3 7 9 10 8 
9 11 10 3 7 5 
13 8 14 12 11 8 
9 4 9 9 1 4 
15 10 14 4 4 11 
12 9 22 5 19 9 
19 16 8 8 11 11 
9 10 12 35 120 187 
161 174 161 153 158 185 
185 172 164 166 177 109 
30 28 71 104 81 37 
43 73 168 189 188 190 
178 183 171 169 150 165 
158 170 188 178 181 160 
158 160 161 169 179 175 
188 199 201 183 169 159 
153 149 168 158 159 162 
158 173 181 177 186 194 
194 194 199 185 204 208 
202 188 181 179 182 162 
148 168 158 174 164 158 
163 153 167 163 158 173 
184 208 204 203 186 184 
176 172 176 174 157 169 
168 174 176 201 208 200 
201 195 192 80 17 36 
115 133 44 6 45 114 
170 204 176 155 173 170 
167 150 162 184 182 191 
108 16 17 8 13 4 
14 7 8 3 10 4 
10 1 11 9 5 9 
7 6 5 10 4 7 
6 7 13 12 11 3 
14 0 12 10 4 0 
15 16 7 2 6 5 
8 10 4 4 7 8 
9 5 5 27 97 177 
184 177 151 145 159 188 
177 168 159 172 185 139 
48 28 51 106 80 21 
28 112 170 214 188 180 
181 186 164 163 156 153 
154 148 157 171 171 164 
154 154 161 169 166 166 
174 182 189 190 193 176 
163 162 174 154 164 165 
157 166 161 162 176 176 
181 175 181 186 193 192 
219 203 189 191 186 195 
180 153 156 167 163 166 
156 166 171 165 159 155 
163 188 201 217 205 190 
185 178 192 169 162 161 
168 147 182 189 199 195 
192 177 193 202 185 96 
32 45 112 101 29 17 
62 134 189 213 171 162 
180 172 160 157 181 179 
185 177 73 6 9 11 
8 6 9 8 7 5 
9 10 7 7 15 10 
20 20 15 10 5 9 
12 6 5 13 8 2 
12 5 6 5 11 7 
10 9 11 15 6 10 
9 4 11 18 3 10 
9 2 14 16 75 162 
186 181 165 156 157 174 
191 182 163 170 183 139 
51 13 50 91 93 44 
49 167 182 194 192 184 
182 180 177 192 175 158 
156 148 162 155 164 172 
163 164 149 154 165 154 
167 168 182 187 188 187 
173 162 155 155 164 153 
164 158 152 170 167 167 
170 172 178 171 173 182 
193 210 196 180 191 194 
174 184 162 169 165 165 
164 164 155 155 164 164 
155 167 181 189 198 198 
184 195 185 183 175 176 
153 161 166 186 189 204 
187 187 191 185 179 201 
189 63 14 41 91 69 
26 17 40 116 176 209 
168 153 177 179 163 162 
178 182 171 151 54 14 
10 8 7 15 1 17 
6 4 11 13 14 7 
5 3 9 3 12 8 
15 10 11 11 4 12 
5 13 13 5 14 16 
13 8 10 19 3 6 
5 8 3 5 5 7 
4 7 17 12 59 148 
187 180 159 152 144 173 
185 176 152 165 188 150 
49 31 54 92 103 43 
50 153 192 194 179 180 
170 177 198 185 187 178 
173 165 157 154 166 158 
163 164 167 171 161 153 
162 153 159 176 191 189 
185 174 163 156 162 144 
161 165 166 170 171 170 
176 178 159 168 173 184 
192 199 204 195 171 189 
158 159 160 164 158 162 
159 155 163 163 161 163 
160 169 165 170 176 193 
189 199 189 183 198 183 
182 165 160 168 185 181 
202 193 188 179 183 185 
189 199 187 61 21 50 
106 48 20 7 42 129 
202 206 165 168 176 186 
159 147 184 178 198 129 
30 4 8 11 12 11 
14 6 15 12 7 4 
9 12 7 4 8 6 
3 6 9 12 3 7 
7 10 4 14 6 23 
2 13 11 6 5 9 
13 12 14 2 18 20 
2 15 10 5 39 139 
205 188 165 153 151 160 
175 189 148 165 207 162 
81 19 26 96 124 64 
20 74 180 188 180 187 
183 182 186 200 197 197 
182 176 167 146 157 147 
150 164 159 158 157 156 
158 154 164 160 154 167 
167 170 163 160 173 163 
159 160 158 154 184 183 
179 177 177 169 173 174 
187 191 203 208 186 178 
170 168 161 171 166 171 
166 169 175 145 159 169 
166 161 169 164 158 174 
178 181 178 186 191 178 
180 194 152 162 170 157 
175 176 184 183 177 169 
182 195 185 202 174 50 
26 60 59 18 11 18 
41 124 205 196 174 161 
183 177 174 173 174 185 
184 94 23 11 15 10 
4 11 12 8 13 16 
11 17 10 8 6 10 
4 16 13 9 8 10 
11 11 12 5 10 6 
4 7 10 8 12 4 
20 6 11 12 7 8 
17 4 2 12 27 79 
175 182 170 154 150 160 
186 183 167 155 194 177 
93 21 32 82 134 106 
28 38 173 192 184 183 
173 172 178 184 200 202 
192 188 173 168 165 172 
154 151 155 157 161 159 
147 165 158 154 159 162 
155 160 157 164 164 171 
161 162 162 165 172 192 
199 183 191 190 192 199 
176 199 188 198 194 174 
170 160 164 179 160 174 
168 170 167 159 168 169 
163 161 154 171 155 154 
164 170 171 175 190 191 
196 189 177 170 155 162 
166 163 162 156 159 161 
166 186 179 194 190 204 
158 29 22 30 46 36 
28 19 52 143 212 186 
165 171 178 153 150 173 
183 200 155 84 13 4 
16 3 10 6 6 8 
6 16 14 4 6 11 
10 17 1 7 2 10 
2 6 18 10 4 7 
21 18 4 6 5 11 
9 14 9 6 13 9 
4 3 10 8 13 40 
155 196 190 154 135 153 
181 188 158 163 167 185 
97 30 23 51 98 111 
56 25 103 195 191 192 
173 161 169 185 178 184 
206 220 179 195 188 157 
158 168 156 158 164 157 
159 178 158 151 158 157 
155 160 163 158 171 162 
152 167 159 154 158 172 
186 197 196 195 194 200 
195 196 187 196 221 202 
185 181 167 157 157 159 
162 165 163 170 173 168 
160 154 172 173 155 171 
171 154 174 164 163 158 
194 185 190 185 169 163 
162 160 162 164 170 157 
160 160 173 181 189 194 
206 206 83 22 32 70 
89 51 16 8 58 177 
202 178 167 187 169 163 
153 164 185 194 148 54 
18 7 10 11 13 9 
11 15 3 17 9 14 
6 10 2 10 10 13 
8 9 4 4 6 12 
8 6 6 6 5 10 
14 8 8 2 6 7 
12 5 4 2 13 26 
98 187 182 164 152 154 
170 182 179 179 172 186 
115 29 14 46 102 97 
63 29 82 178 201 186 
188 174 167 157 174 180 
182 203 204 196 185 182 
167 154 145 158 165 167 
150 162 163 161 152 169 
167 164 150 157 173 151 
162 159 160 168 160 165 
154 169 183 179 193 191 
208 213 195 194 212 207 
206 195 172 187 171 176 
163 170 156 167 157 168 
159 147 167 162 175 164 
170 162 163 171 165 169 
175 189 195 191 197 193 
162 170 168 157 164 165 
167 153 163 156 170 189 
188 198 210 187 68 10 
39 78 65 32 21 16 
74 195 192 169 160 177 
164 145 162 178 197 182 
116 55 6 11 11 5 
13 8 6 10 8 2 
2 6 3 12 7 13 
2 9 5 3 9 2 
5 13 8 13 8 8 
17 6 6 5 8 4 
5 9 10 6 9 7 
60 168 196 184 169 154 
146 186 179 167 160 181 
159 45 20 38 72 102 
70 32 52 162 201 214 
194 178 188 173 162 168 
177 184 192 192 203 192 
179 180 160 160 153 161 
163 168 152 160 164 148 
159 167 167 164 147 158 
162 159 179 170 165 159 
149 167 158 164 178 192 
194 199 209 216 217 212 
212 208 190 190 190 197 
190 180 172 161 164 169 
171 168 168 162 152 163 
172 166 171 160 168 147 
156 170 181 191 192 205 
194 185 179 178 176 164 
157 169 160 165 167 161 
190 191 190 197 205 185 
48 9 47 67 87 45 
19 30 117 184 185 164 
181 163 161 162 171 180 
194 159 86 41 12 13 
4 13 2 10 13 10 
9 7 4 3 6 10 
14 9 5 11 6 13 
3 6 5 11 8 13 
5 5 3 2 20 10 
6 8 4 11 9 4 
27 119 188 179 181 164 
157 172 182 169 157 188 
170 85 45 39 56 99 
71 23 28 164 207 198 
202 196 179 179 181 163 
151 174 171 188 188 179 
171 186 171 161 156 162 
154 154 150 157 165 167 
163 167 169 159 159 164 
174 167 152 158 156 166 
158 154 170 156 160 168 
178 176 195 198 194 211 
229 220 222 195 198 198 
193 188 182 165 175 166 
169 168 171 170 163 150 
157 160 174 163 168 165 
166 168 161 179 187 197 
196 184 185 193 186 185 
176 180 161 149 165 163 
166 193 197 198 201 188 
202 177 54 16 55 79 
80 49 39 50 169 205 
154 161 158 179 152 158 
163 181 185 131 57 16 
5 7 7 1 7 6 
11 9 16 8 3 10 
3 8 4 8 10 12 
2 11 4 8 8 6 
6 5 6 11 1 6 
5 1 2 13 8 16 
16 39 166 190 187 163 
152 161 176 185 170 153 
185 124 43 28 61 81 
79 39 20 78 193 207 
190 185 187 187 192 170 
168 153 151 164 188 179 
182 189 177 178 164 154 
156 170 166 160 150 165 
150 164 146 155 156 156 
170 167 150 157 157 167 
154 160 150 163 162 166 
169 164 173 174 181 188 
195 219 216 195 189 191 
196 188 165 174 177 171 
158 179 171 153 167 156 
159 166 163 161 163 165 
160 147 173 169 186 183 
182 201 194 199 200 199 
200 175 179 164 159 163 
161 166 180 189 187 184 
180 189 219 179 33 25 
42 73 80 56 31 107 
199 192 162 182 182 160 
154 159 174 200 172 98 
34 9 4 3 5 3 
12 15 12 10 16 1 
16 7 2 4 10 11 
2 1 9 4 3 5 
6 4 9 3 3 6 
8 7 7 17 8 9 
8 7 88 180 187 164 
145 150 174 176 175 161 
168 168 64 27 49 76 
86 60 25 49 157 203 
204 198 196 188 161 186 
183 180 152 165 159 169 
183 194 190 181 189 157 
170 163 150 163 174 148 
157 171 170 168 164 158 
165 149 163 150 151 172 
170 159 165 158 161 176 
180 187 177 177 167 196 
196 188 208 196 196 192 
186 163 163 173 169 176 
172 172 159 163 161 158 
172 160 168 159 157 159 
169 158 170 165 166 179 
182 197 211 195 205 187 
196 195 181 172 156 163 
158 165 166 180 190 196 
191 187 202 198 198 76 
15 26 65 92 93 57 
41 169 213 175 172 187 
159 162 175 173 176 190 
153 57 15 13 14 17 
7 19 8 6 8 13 
17 7 8 17 6 12 
7 0 10 5 7 4 
3 10 11 4 17 4 
10 7 2 7 17 11 
15 13 44 144 192 177 
167 148 156 185 179 164 
151 187 116 51 58 85 
97 85 46 38 101 195 
208 202 205 187 187 190 
184 178 160 160 167 162 
158 176 180 193 191 179 
172 159 163 165 166 166 
147 161 162 165 166 165 
166 169 158 165 168 156 
170 150 164 165 150 174 
189 181 193 181 187 184 
194 198 199 205 208 203 
192 177 164 157 166 160 
162 176 153 168 162 149 
160 163 152 155 158 157 
154 175 153 167 171 180 
185 200 198 193 193 200 